CRYSTAL
PRIMVEC          1
    5.92800000    0.00000000    0.00000000
    0.00000000    7.44000000    0.00000000
    0.00000000    0.00000000    5.37200000
PRIMCOORD        1
      20       1
  Bi      3.37037247      1.86000000      0.06760063
  Bi      0.40637247      1.86000000      2.61839937
  Bi      5.52162753      5.58000000      2.75360063
  Bi      2.55762753      5.58000000      5.30439937
  Mn      0.00000000      0.00000000      0.00000000
  Mn      0.00000000      3.72000000      0.00000000
  Mn      2.96400000      0.00000000      2.68600000
  Mn      2.96400000      3.72000000      2.68600000
   O      0.16333153      5.58000000      0.52316374
   O      1.88239715      0.33428878      1.11339810
   O      1.88239715      3.38571122      1.11339810
   O      4.84639715      0.33428878      1.57260190
   O      4.84639715      3.38571122      1.57260190
   O      3.12733153      5.58000000      2.16283626
   O      2.80066847      1.86000000      3.20916374
   O      1.08160285      4.05428878      3.79939810
   O      1.08160285      7.10571122      3.79939810
   O      4.04560285      4.05428878      4.25860190
   O      4.04560285      7.10571122      4.25860190
   O      5.76466847      1.86000000      4.84883626
