CRYSTAL
PRIMVEC
 7.512491134054471 0.0 0.0
 0.0 7.424669067596463 0.0
 0.0 0.0 7.56985190708112
PRIMCOORD
40 1
 Bi 0.10627950959716831 7.2655926668490585 0.13703665371808962
 Bi 3.8620046208012577 3.562491860847424 3.9227002900181454
 Mn 0.12084393985429209 3.513178589619083 0.2511137002318302
 Mn 0.15097320143544252 3.5472680157684175 4.023754462794912
 Mn 0.16556345137517092 7.236101591998468 4.061921701997116
 Mn 3.9253763487083364 3.525687183587477 0.2768395472537503
 Mn 3.8774219326630455 7.239263746415895 4.037426930607781
 Mn 3.9070625173536104 7.225904908245863 0.23817261174655996
 Mn 5.7950824786761705 5.399101397939541 2.1479185804297845
 Mn 5.752987418708179 5.357195401297265 5.919704064503337
 Mn 5.787500506671285 1.653245611923641 2.158723593485262
 Mn 5.741238569422953 1.7014632063460877 5.906197083138791
 Mn 2.0297825816304003 5.369861830907799 5.947385429406081
 Mn 1.9847263099776287 5.403905849537957 2.1223551782807513
 Mn 1.9955513167596968 1.6360725986950457 2.1310621619337167
 Mn 2.0424419621023984 1.6896794777871147 5.926688792400312
 O 5.400580634533373 7.1941668348531085 6.558161535998529
 O 1.6435808845467095 3.566703791193257 2.772139745641547
 O 2.4237069114173795 7.188073053973258 1.4827511929140453
 O 6.1816198670743425 3.5694558911007714 5.270087198326736
 O 5.2602509037505945 7.259452680810261 1.6372195532481957
 O 1.5058859907848312 3.5026825009970013 5.420566462501565
 O 2.5656146013444197 7.272568520776856 6.406557587986244
 O 6.321127929742177 3.494832182707294 2.623811069531545
 O 0.22843233941526073 1.0972210133209246 5.498737096765785
 O 4.01813303976738 4.8091844363290495 1.7303525256545271
 O 0.2566209864076024 5.94907771569499 5.510240388887354
 O 3.9824992962631263 2.2377077164351964 1.7080791771287036
 O 0.021862569885611683 5.910751202871466 2.672406568980939
 O 3.820705830582849 2.234139916682004 6.434642608621931
 O 3.777322614924278 4.8508194061435335 6.451367977115469
 O 0.061913585342551064 1.1025814413683739 2.645916239713652
 O 6.335174004158543 2.106558927000539 0.10063798775984237
 O 2.5693967850060324 5.840232885621498 3.9183904788843495
 O 6.315438910474171 4.8976703654498195 0.13360553636808067
 O 2.572432077091075 1.2081532228138336 3.887986024304317
 O 5.1727200465462575 1.2256286081550631 4.169507364972244
 O 1.4243430547494966 4.915236568988403 0.3630619492403208
 O 1.4113014532906798 2.0929760575180816 0.38725069195693057
 O 5.176802465742305 5.828498909600945 4.154195363339548
