CRYSTAL
PRIMVEC          1
    5.92800000    0.00000000    0.00000000
    0.00000000    7.44000000    0.00000000
    0.00000000    0.00000000    5.37200000
PRIMCOORD        1
      20       1
Bi      3.37037247      1.86000000      0.06760063 0.0000000000 0.0000000000 -0.0000000049
Bi      0.40637247      1.86000000      2.61839937 0.0000000000 0.0000000000 -0.0000000049
Bi      5.52162753      5.58000000      2.75360063 0.0000000000 0.0000000000 -0.0000000049
Bi      2.55762753      5.58000000      5.30439937 0.0000000000 0.0000000000 -0.0000000049
Mn      0.00000000      0.00000000      0.00000000 0.0000000000 0.0000000000 3.7949776996
Mn      0.00000000      3.72000000      0.00000000 0.0000000000 0.0000000000 -3.7949781983
Mn      2.96400000      0.00000000      2.68600000 0.0000000000 0.0000000000 3.7949772578
Mn      2.96400000      3.72000000      2.68600000 0.0000000000 0.0000000000 -3.7949782425
O      0.16333153      5.58000000      0.52316374 0.0000000000 0.0000000000 -0.0000000831
O      1.88239715      0.33428878      1.11339810 0.0000000000 0.0000000000 0.0290995269
O      1.88239715      3.38571122      1.11339810 0.0000000000 0.0000000000 -0.0290997345
O      4.84639715      0.33428878      1.57260190 0.0000000000 0.0000000000 0.0290994662
O      4.84639715      3.38571122      1.57260190 0.0000000000 0.0000000000 -0.0290997417
O      3.12733153      5.58000000      2.16283626 0.0000000000 0.0000000000 -0.0000001542
O      2.80066847      1.86000000      3.20916374 0.0000000000 0.0000000000 -0.0000001542
O      1.08160285      4.05428878      3.79939810 0.0000000000 0.0000000000 -0.0290997417
O      1.08160285      7.10571122      3.79939810 0.0000000000 0.0000000000 0.0290994662
O      4.04560285      4.05428878      4.25860190 0.0000000000 0.0000000000 -0.0290997345
O      4.04560285      7.10571122      4.25860190 0.0000000000 0.0000000000 0.0290995269
O      5.76466847      1.86000000      4.84883626 0.0000000000 0.0000000000 -0.0000000831
